
Host: Boyis-MacBook-Pro.local

Timers On : Wed Jul 26 15:55:11 2017
Timers Off: Wed Jul 26 15:55:12 2017

Wall Time:        0.42 seconds


-----------------------------------------------------------

***********************************************************

Host: Boyis-MacBook-Pro.local

Timers On : Wed Jul 26 15:55:23 2017
Timers Off: Wed Jul 26 15:55:23 2017

Wall Time:        0.13 seconds


-----------------------------------------------------------

***********************************************************

Host: Boyis-MacBook-Pro.local

Timers On : Wed Jul 26 16:22:57 2017
Timers Off: Wed Jul 26 16:22:57 2017

Wall Time:        0.13 seconds


-----------------------------------------------------------

***********************************************************

Host: Boyis-MacBook-Pro.local

Timers On : Wed Jul 26 16:23:28 2017
Timers Off: Wed Jul 26 16:23:29 2017

Wall Time:        0.13 seconds


-----------------------------------------------------------

***********************************************************

Host: Boyis-MacBook-Pro.local

Timers On : Wed Jul 26 16:24:00 2017
Timers Off: Wed Jul 26 16:24:01 2017

Wall Time:        0.13 seconds


-----------------------------------------------------------

***********************************************************

Host: Boyis-MacBook-Pro.local

Timers On : Wed Jul 26 16:26:31 2017
Timers Off: Wed Jul 26 16:26:31 2017

Wall Time:        0.19 seconds


-----------------------------------------------------------

***********************************************************
